TITLE = "neb_0035.tec"
VARIABLES = "X","Y","Z","Mx","My","Mz","SD"
ZONE T="1" N=1691, E=8404
F=FEBLOCK, ET=TETRAHEDRON, VARLOCATION=([7]=CELLCENTERED)
 4.0549660E-07 -4.9898640E-03  4.9898640E-03 -4.0549660E-07 -5.0000000E-03 -5.0000000E-03 -4.9898640E-03  4.0632030E-07 -5.0000000E-03 -4.9902710E-03
-5.5511150E-18  0.0000000E+00 -5.0000000E-03 -4.0632030E-07 -4.9898650E-03  4.9898650E-03  5.0000000E-03  5.0000000E-03  5.0000000E-03  5.0000000E-03
 4.9902710E-03  4.9898640E-03  2.7755580E-18 -5.5511150E-18 -7.0097910E-04 -1.4184790E-03 -2.1359790E-03 -2.8534790E-03 -3.5709800E-03 -4.2884800E-03
 4.2885940E-03  3.5712100E-03  2.8538270E-03  2.1364430E-03  1.4190600E-03  7.0167610E-04  7.0097910E-04  1.4184790E-03  2.1359790E-03  2.8534790E-03
 3.5709800E-03  4.2884800E-03 -4.2885940E-03 -3.5712100E-03 -2.8538270E-03 -2.1364430E-03 -1.4190600E-03 -7.0167610E-04 -5.0000000E-03 -5.0000000E-03
-5.0000000E-03 -5.0000000E-03 -5.0000000E-03 -5.0000000E-03 -4.2884800E-03 -3.5709790E-03 -2.8534790E-03 -2.1359790E-03 -1.4184790E-03 -7.0097840E-04
-5.0000000E-03 -5.0000000E-03 -5.0000000E-03 -5.0000000E-03 -5.0000000E-03 -5.0000000E-03 -4.2890220E-03 -3.5714680E-03 -2.8539130E-03 -2.1363580E-03
-1.4188040E-03 -7.0124930E-04 -7.0116500E-04 -1.4186340E-03 -2.1361030E-03 -2.8535720E-03 -3.5710410E-03 -4.2885100E-03 -5.0000000E-03 -5.0000000E-03
-5.0000000E-03 -5.0000000E-03 -5.0000000E-03 -5.0000000E-03 -5.0000000E-03 -5.0000000E-03 -5.0000000E-03 -5.0000000E-03 -5.0000000E-03 -5.0000000E-03
-7.0167700E-04 -1.4190600E-03 -2.1364440E-03 -2.8538270E-03 -3.5712110E-03 -4.2885940E-03  7.0167700E-04  1.4190600E-03  2.1364440E-03  2.8538270E-03
 3.5712110E-03  4.2885940E-03  5.0000000E-03  5.0000000E-03  5.0000000E-03  5.0000000E-03  5.0000000E-03  5.0000000E-03  5.0000000E-03  5.0000000E-03
 5.0000000E-03  5.0000000E-03  5.0000000E-03  5.0000000E-03  5.0000000E-03  5.0000000E-03  5.0000000E-03  5.0000000E-03  5.0000000E-03  5.0000000E-03
 5.0000000E-03  5.0000000E-03  5.0000000E-03  5.0000000E-03  5.0000000E-03  5.0000000E-03  4.2885100E-03  3.5710410E-03  2.8535720E-03  2.1361030E-03
 1.4186340E-03  7.0116510E-04  7.0124930E-04  1.4188040E-03  2.1363580E-03  2.8539130E-03  3.5714680E-03  4.2890220E-03  4.2884800E-03  3.5709790E-03
 2.8534790E-03  2.1359790E-03  1.4184790E-03  7.0097840E-04  7.0116500E-04  1.4186340E-03  2.1361030E-03  2.8535720E-03  3.5710410E-03  4.2885100E-03
-4.2885100E-03 -3.5710410E-03 -2.8535720E-03 -2.1361030E-03 -1.4186340E-03 -7.0116510E-04  4.2890220E-03  3.5714680E-03  2.8539130E-03  2.1363580E-03
 1.4188040E-03  7.0124930E-04 -7.0124930E-04 -1.4188040E-03 -2.1363580E-03 -2.8539130E-03 -3.5714680E-03 -4.2890220E-03 -3.6113600E-04 -1.0952480E-03
-1.8824070E-03  3.3800230E-03  2.5975370E-03  1.8827130E-03  1.1653290E-03  4.8694190E-04 -2.5894470E-03  3.6136040E-04  1.0952960E-03  1.8824070E-03
 2.5999070E-03  3.3088330E-03 -3.3013420E-03 -3.3931150E-03 -2.6053710E-03 -1.8827130E-03 -1.1653290E-03 -4.8707680E-04 -6.4610170E-05 -9.1159870E-04
-1.6289820E-03 -2.3573940E-03  2.3555110E-03  1.6288340E-03  8.8552620E-04  6.3791500E-05  9.1159870E-04  1.6508760E-03 -1.6442070E-03 -8.8728230E-04
 2.4520280E-05 -6.8668970E-04  1.3530870E-03  6.9276460E-04 -1.3540700E-03 -4.4060650E-05  6.0288340E-04 -6.1149840E-04  8.3629700E-09 -2.8482730E-03
-4.2832730E-03 -4.2928550E-03 -4.2928550E-03 -4.2928550E-03 -3.5657730E-03 -4.2928550E-03 -2.1307730E-03 -1.4132720E-03 -2.1307730E-03 -2.8482730E-03
-3.5657730E-03 -2.8379180E-03 -3.5758330E-03 -3.5758330E-03 -2.1310960E-03 -2.8486510E-03 -3.5662050E-03 -4.2837600E-03 -4.2929120E-03 -4.2929120E-03
-4.2929120E-03 -4.2929120E-03 -1.4135010E-03 -2.8484390E-03 -2.1309700E-03 -3.5659070E-03 -3.5758950E-03 -3.5760500E-03 -2.8381210E-03 -5.0000000E-03
-5.0000000E-03 -5.0000000E-03 -5.0000000E-03 -5.0000000E-03 -5.0000000E-03 -5.0000000E-03 -5.0000000E-03 -5.0000000E-03 -5.0000000E-03 -5.0000000E-03
-5.0000000E-03 -5.0000000E-03 -5.0000000E-03 -5.0000000E-03 -5.0000000E-03 -5.0000000E-03 -5.0000000E-03 -5.0000000E-03 -5.0000000E-03 -5.0000000E-03
-5.0000000E-03 -5.0000000E-03 -5.0000000E-03 -5.0000000E-03 -5.0000000E-03 -5.0000000E-03 -5.0000000E-03 -5.0000000E-03 -5.0000000E-03 -5.0000000E-03
-5.0000000E-03 -5.0000000E-03 -5.0000000E-03 -5.0000000E-03 -5.0000000E-03 -5.0000000E-03 -5.0000000E-03 -5.0000000E-03 -5.0000000E-03 -5.0000000E-03
-3.5660340E-03 -2.1312670E-03 -1.4138840E-03 -2.8487360E-03 -4.2835030E-03 -2.1313530E-03 -3.5661200E-03 -4.2929120E-03 -4.2929120E-03 -2.8486510E-03
-4.2929120E-03 -4.2929120E-03 -3.5760010E-03 -2.8383980E-03 -3.5758100E-03  4.2929120E-03  4.2929120E-03  2.8486510E-03  1.4138840E-03  3.5660340E-03
 4.2929120E-03  2.1312670E-03  4.2929120E-03  4.2929120E-03  3.5661200E-03  2.8487360E-03  2.1313530E-03  3.5760010E-03  2.8383980E-03  3.5758100E-03
 5.0000000E-03  5.0000000E-03  5.0000000E-03  5.0000000E-03  5.0000000E-03  5.0000000E-03  5.0000000E-03  5.0000000E-03  5.0000000E-03  5.0000000E-03
 5.0000000E-03  5.0000000E-03  5.0000000E-03  5.0000000E-03  5.0000000E-03  5.0000000E-03  5.0000000E-03  5.0000000E-03  5.0000000E-03  5.0000000E-03
 5.0000000E-03  5.0000000E-03  5.0000000E-03  5.0000000E-03  5.0000000E-03  5.0000000E-03  5.0000000E-03  5.0000000E-03  5.0000000E-03  5.0000000E-03
 5.0000000E-03  5.0000000E-03  5.0000000E-03  5.0000000E-03  5.0000000E-03  5.0000000E-03  5.0000000E-03  5.0000000E-03  5.0000000E-03  5.0000000E-03
 5.0000000E-03  2.8486510E-03  1.4135420E-03  2.8484390E-03  4.2833770E-03  2.1309700E-03  2.1310960E-03  3.5659080E-03  4.2929120E-03  4.2929120E-03
 4.2929120E-03  3.5662050E-03  4.2929120E-03  3.5760500E-03  3.5758950E-03  2.8381210E-03 -3.3791790E-03 -2.5966840E-03 -1.8824060E-03 -4.5744420E-04
-3.6160360E-04 -1.0955370E-03 -1.8824150E-03 -2.5998840E-03 -3.3083440E-03 -1.1123170E-03  3.2948450E-03  1.8824150E-03  1.1649460E-03  4.8671560E-04
 3.8238320E-04  2.5882670E-03  1.1445930E-03  1.8827630E-03  2.6046140E-03  3.3938660E-03  2.3566690E-03  1.6290820E-03  9.1169900E-04  6.2202070E-05
 6.5343000E-05  1.6433180E-03  9.1125870E-04 -2.3456670E-03 -1.6287270E-03 -8.7909450E-04 -8.8652790E-04 -1.6418660E-03 -1.2910390E-03 -6.1730720E-04
 4.5073960E-05  4.4126050E-05 -6.0833990E-04  1.3532300E-03  6.1811610E-04  6.0814180E-04 -1.0276140E-04  2.8482730E-03  4.2832730E-03  4.2928550E-03
 4.2928550E-03  4.2928550E-03  3.5657730E-03  4.2928550E-03  2.1307730E-03  1.4132720E-03  2.1307730E-03  2.8482730E-03  3.5657730E-03  2.8379180E-03
 3.5758330E-03  3.5758330E-03  3.3791790E-03  2.5966840E-03  1.8824060E-03  4.5744420E-04  3.6160360E-04  1.0955370E-03  1.8824150E-03  2.5998840E-03
 3.3083440E-03  1.1123170E-03 -3.2948450E-03 -1.8824150E-03 -1.1649460E-03 -4.8671560E-04 -3.8238320E-04 -2.5882670E-03 -1.1445930E-03 -1.8827630E-03
-2.6046140E-03 -3.3938660E-03 -2.3566690E-03 -1.6290820E-03 -9.1169900E-04 -6.2202070E-05 -6.5343000E-05 -1.6433180E-03 -9.1125870E-04  2.3456670E-03
 1.6287270E-03  8.7909450E-04  8.8652790E-04  1.6418660E-03  1.2910390E-03  6.1730720E-04 -4.5073960E-05 -4.4126050E-05  6.0833990E-04 -1.3532300E-03
-6.1811610E-04 -6.0814180E-04  1.0276140E-04  2.1310960E-03  2.8486510E-03  3.5662050E-03  4.2837600E-03  4.2929120E-03  4.2929120E-03  4.2929120E-03
 4.2929120E-03  1.4135010E-03  2.8484390E-03  2.1309700E-03  3.5659070E-03  3.5758950E-03  3.5760500E-03  2.8381210E-03 -2.8486510E-03 -1.4135420E-03
-2.8484390E-03 -4.2833770E-03 -2.1309700E-03 -2.1310960E-03 -3.5659080E-03 -4.2929120E-03 -4.2929120E-03 -4.2929120E-03 -3.5662050E-03 -4.2929120E-03
-3.5760500E-03 -3.5758950E-03 -2.8381210E-03  3.6142790E-04  1.0955900E-03  1.8827630E-03  4.5771520E-04 -1.8827630E-03  3.3803570E-03  2.5971170E-03
-2.5892820E-03 -1.1652090E-03 -4.8670050E-04  2.6003180E-03 -3.3935810E-03 -2.6056110E-03  1.8827630E-03  3.3092410E-03 -3.2959270E-03  1.1125940E-03
-1.8827630E-03 -1.1452350E-03 -3.8140030E-04 -6.1957010E-05 -9.1161350E-04  8.8644130E-04 -2.3583860E-03  2.3553200E-03 -6.3999510E-05 -1.6438240E-03
 1.6418430E-03 -1.6291680E-03 -9.1161350E-04  1.6291680E-03  8.8560710E-04 -2.4213270E-05  6.7170840E-04 -6.7740690E-04  1.3574930E-03 -1.3627040E-03
 6.0993750E-04 -4.3911690E-05 -6.1406660E-04 -1.7591480E-14 -4.8505840E-04 -1.0224150E-03 -1.1733490E-04 -7.3295070E-04  4.4051530E-04 -2.8871640E-04
 2.7588510E-06 -8.0170020E-05 -1.2733610E-03 -4.4929930E-04 -6.7776550E-04 -8.6131260E-04 -1.6151890E-03 -9.9889610E-04 -1.7313290E-03 -5.7387870E-05
 1.4753750E-03  2.3181020E-03  1.2973910E-03  1.2068160E-03  1.9414150E-03  1.8121780E-03  1.1009320E-03  1.8325160E-03  4.0487030E-04  6.5902990E-04
 1.2314760E-03  4.1559360E-03  3.6703450E-03  4.3943770E-03  5.7524390E-04  6.7752180E-04  1.2754750E-03 -4.3842190E-03  1.9151010E-03  8.5196350E-04
 1.6483130E-03  1.5772630E-03  7.5898600E-04  1.2133930E-03  5.4638930E-04  2.5567190E-04 -2.1380280E-04  8.0722550E-04  1.0730460E-03  2.1119110E-04
-4.6268680E-04 -1.2287210E-03 -6.2367760E-04 -9.9489970E-04 -1.1536370E-03 -4.3016540E-04 -1.5405580E-03 -1.1679080E-03 -8.8902030E-04 -1.7069590E-03
-1.7406950E-03 -4.3150440E-04 -7.2341310E-04 -2.7123840E-05  9.6346920E-04  4.7576640E-04  4.4482960E-04  8.2516970E-04 -2.8403580E-05 -2.1567540E-03
-1.8867390E-03 -1.5968200E-03 -7.4161450E-04 -1.2746940E-03 -1.5323290E-03 -9.4791930E-04  4.3760410E-03 -2.2681720E-03  4.2808990E-03  4.3299300E-03
-7.4717960E-05  2.5453070E-04  8.0732250E-05  8.4675490E-04  9.0648300E-04 -6.9004870E-04 -1.5251410E-03 -7.1916940E-04 -3.7609400E-03  1.6396380E-04
-7.5998510E-04 -1.2799490E-03 -1.6623410E-03 -1.5794740E-03 -1.1684790E-03 -3.4541500E-04 -3.9925510E-03 -1.8135520E-03 -3.3964190E-03 -3.8748090E-04
-1.8747060E-03 -1.4481580E-03 -1.7665400E-03  1.1574850E-03  1.5251370E-03  1.6149660E-03  1.7658450E-03  1.7864660E-03  9.7630080E-04 -1.3037060E-03
-2.4306690E-03 -2.2116010E-03 -2.2457170E-03 -2.1084240E-03 -2.5286680E-03 -1.8862610E-03 -8.1848750E-04  1.6653470E-03  4.3312270E-03  4.3145050E-03
 4.3493980E-03  2.1657530E-03  1.7618730E-03  1.0641390E-03  2.3479950E-03  1.6189570E-03  2.3576940E-03  2.1633030E-03  1.9347760E-03  1.4542060E-03
 9.9556730E-04  1.5267640E-03 -2.8721490E-04  2.6216820E-04  4.7500880E-03 -1.4806940E-03 -1.1505820E-03 -1.7046760E-03 -9.3018570E-04 -1.9868660E-03
-6.7522800E-04  1.2147370E-03 -4.8436740E-04  1.2629330E-03  8.4389560E-04  8.1059980E-04  1.5183540E-03 -2.4203810E-03 -2.0143850E-03 -1.6056400E-03
-2.2817850E-03 -1.0535080E-03  2.0243640E-04  6.3176990E-04 -2.1672310E-03 -4.1823380E-05 -4.1490790E-04  3.8592270E-05 -5.3526690E-04 -6.2656040E-04
-8.0543490E-06 -1.2190170E-03 -1.2673500E-03 -1.7527910E-03 -2.2274130E-03 -1.3448070E-03 -4.6166970E-04 -1.2170530E-03 -1.3424030E-03 -2.0134850E-03
-1.9986560E-03 -1.9553570E-03 -4.7619380E-04  2.1170340E-05  4.2241740E-04 -1.5089850E-03 -5.5953550E-04 -7.5168430E-04  4.3702060E-03  4.3732760E-03
 3.7603910E-03  2.7394940E-03  2.8538190E-03  1.9581410E-03  1.2970880E-03  2.2643540E-03  1.7558450E-03 -4.2466030E-03 -3.5190860E-03  2.9002690E-03
 2.1090600E-03  2.9221670E-03  5.0171680E-05  8.0770640E-04  2.3965050E-05  7.6680200E-04 -2.1326330E-04 -3.2145580E-05 -1.8596970E-07 -6.0733990E-05
 8.4862510E-04  6.4643770E-05  3.1385010E-04  2.1698440E-03  9.0231020E-04  1.2539770E-03  4.5120810E-04 -1.3653870E-03 -2.0234910E-03  2.7255940E-03
 2.0265690E-03  2.8235230E-03 -3.3807430E-04  2.8681060E-04  4.4038930E-04 -2.3495440E-04  1.5301440E-03  6.9335440E-04  1.8735770E-03  1.2938470E-03
-1.1729780E-03 -7.3913340E-04 -2.5819820E-03  1.9140030E-03  2.2062260E-03  2.8868230E-03  2.3641600E-03 -4.3313160E-03 -1.0395160E-03 -1.6246310E-03
-9.4289000E-04 -1.3394910E-03  1.1773360E-04 -4.7460650E-04 -4.4963890E-04 -3.3321330E-04 -8.0540690E-04 -5.4154100E-04  1.0012930E-04 -3.3376080E-05
 1.6133650E-03 -1.1008430E-03  1.8091790E-04 -7.2879760E-04 -7.9276580E-04 -1.4670140E-03 -1.2880040E-03 -2.0343750E-03 -1.1034100E-03 -2.0766250E-03
 4.1681640E-04  9.3407080E-04  1.7154870E-03  1.1454810E-03  1.1417020E-03  2.1531320E-03 -1.9725140E-03 -2.0810000E-03 -2.4539620E-03 -1.6188320E-03
-2.3289410E-03  2.3331740E-03  2.0548540E-03  1.3746110E-03  1.4097680E-03  6.4905190E-04  2.3892950E-03  6.6147340E-04 -1.1090480E-04  4.3902590E-05
 1.0509300E-03  1.1769330E-03  2.0488550E-03  4.3696840E-04 -2.6036190E-03 -5.1744230E-04  1.5859760E-04 -5.5157540E-04  2.4777220E-03  1.1224300E-03
 1.5116630E-04  1.1144890E-03 -1.1050690E-03 -2.7841830E-03 -2.0982890E-03 -2.0876020E-03 -1.4106990E-03 -8.3492350E-04 -4.3667670E-03 -4.3446090E-03
-4.3441090E-03 -4.3500910E-03 -7.8063760E-04 -9.3782910E-04 -7.3703180E-04 -2.2397370E-03 -2.1976880E-03 -2.1851770E-03 -2.5831740E-03 -1.3230750E-03
-1.6372350E-03 -2.7049680E-03 -2.0583720E-03 -1.9115650E-03 -2.5815100E-03 -2.3248040E-03 -9.9179720E-05  2.2797070E-03  2.7144020E-04  1.4447990E-03
 1.8269060E-03  2.5479020E-03  2.0401470E-03  2.5786270E-03  2.3545130E-03  2.0965810E-03  1.3463660E-03  2.7029790E-03  2.1032040E-03  2.4401990E-03
 3.4951420E-03  3.6597550E-03  2.7332010E-03  2.8407700E-03  1.2957620E-03  8.2687240E-04  7.3856190E-04  1.5713160E-03  1.0347470E-03  2.4085870E-04
-3.5283470E-03 -3.0825720E-03 -3.6762060E-03 -5.2247220E-04 -2.1037250E-04 -1.0155510E-03  3.2491250E-04  6.2433500E-04  1.9638280E-04  1.1945050E-03
 5.1788920E-04  1.4947880E-03 -2.7822870E-03 -2.4388390E-03 -3.0487170E-03 -2.4916910E-03 -1.7191040E-03  1.0588130E-04 -2.1595000E-04  2.7850920E-03
 2.0036790E-03  2.6791210E-03  2.5877200E-03  2.2217130E-03  1.7034260E-03  1.6594110E-03  2.4281460E-03  2.2857660E-03  2.7413510E-03 -7.4122380E-04
 4.5490090E-04  7.5828700E-04  1.4449070E-03  4.9619930E-04  4.2597100E-03  4.3891390E-03  3.6639390E-03  9.9337450E-04  2.2638700E-03  1.5548560E-03
 1.3435740E-03 -2.9247120E-03 -2.2186180E-03 -2.4559750E-03 -3.0286490E-03 -2.4955260E-03 -1.7152160E-03 -1.3848300E-03 -1.9639510E-03 -1.5426740E-03
-2.3373530E-03 -1.0013880E-03 -3.4176180E-04 -1.2039000E-03  3.1854450E-03 -1.2289100E-03 -2.1527320E-03 -1.6536700E-03 -3.7804920E-03 -2.9122890E-03
-4.3036480E-03 -2.5541600E-04 -9.7689090E-04  3.0814160E-03  2.9316420E-03  3.0398980E-03  1.7737640E-03  1.1996650E-03 -4.1978260E-03  1.2966910E-03
 2.0807210E-03  1.9966060E-03  6.8010150E-04  6.5800580E-04  1.4662700E-03 -1.1099710E-03 -1.3377070E-03  1.1573760E-03 -1.0216230E-04  2.4302840E-03
 1.8272500E-03  2.9345290E-03 -1.8839220E-03 -1.7406420E-03 -1.2337330E-03 -1.9496230E-03 -1.7642000E-03 -1.1536980E-03  1.6920310E-03  2.1746690E-03
 2.0955120E-03  4.2769830E-04  5.5086350E-04 -3.0972650E-07 -2.8977530E-03 -2.3568960E-03 -7.3483760E-04 -1.5677350E-03 -2.1369210E-03 -2.6349410E-03
-2.3201770E-03 -1.5217040E-03 -2.8520660E-03 -2.5882980E-03 -3.3144370E-03 -2.2689050E-03 -2.5325940E-03 -1.7785200E-03 -1.8838480E-03 -1.5569010E-03
-1.8447050E-03  1.6151040E-03  2.2354810E-03  4.1729610E-03  1.9069890E-03  2.8247720E-03  3.0250720E-03  2.3524650E-03  2.0527840E-03  2.6275130E-03
 2.7509790E-03  2.2963370E-03 -5.5937170E-05  1.1994210E-03 -2.4926870E-03 -1.8456250E-03 -4.3164530E-03 -4.2891400E-03 -3.4115290E-03  4.4018480E-04
 1.4594640E-03  1.2077330E-03  1.3370670E-03  3.9993770E-04 -6.4927910E-05 -6.8922010E-04  8.7099710E-04 -7.4079770E-04 -2.2109000E-03  4.3138090E-03
-1.8962440E-03 -2.4556730E-03 -2.3436140E-03 -2.7086980E-03 -2.0752670E-03 -2.1398050E-03 -1.5674570E-03 -1.6261350E-03 -2.5341200E-03 -2.7972780E-03
-3.6435700E-03 -3.0916030E-03 -2.9549270E-03 -2.7114150E-03  3.6019250E-05  1.0268890E-03  1.3513230E-04  5.8831970E-04 -1.8136390E-03 -3.0042710E-03
-2.6895290E-03  1.2117890E-03  2.7911070E-03  3.1476970E-03  3.2432130E-03  2.8071300E-03  1.1640490E-03  1.5372700E-03  2.2088300E-03  1.7687270E-03
 1.0553890E-03  7.0823480E-04 -2.9602230E-03  2.6333620E-03  2.3219140E-03  1.4997260E-03 -2.1108940E-03 -2.8051380E-03 -4.9490060E-04 -9.7114480E-04
-3.4286780E-04 -1.5412280E-03 -2.2610360E-03 -2.8194910E-03 -2.9829140E-03 -3.0078460E-03 -2.8392460E-03 -3.6837550E-03 -3.1152950E-03 -3.7593480E-03
-3.6472020E-03 -3.3329630E-03 -4.2367170E-03 -3.7664680E-03 -3.0476470E-03 -3.4923590E-03 -3.6334100E-03 -3.0099670E-03 -4.2129300E-03 -4.1849260E-03
-3.4196100E-03 -3.5892800E-03 -3.1164130E-03  2.6450950E-03  3.4225430E-03  3.6072810E-03 -1.5935000E-03 -2.4105350E-03 -2.9488890E-03 -1.8914770E-03
-2.6918700E-03 -1.9312740E-03 -1.7340760E-03 -2.9660760E-03 -2.3704420E-03 -2.7511220E-03 -3.5175030E-03 -3.4627570E-03 -3.4267600E-03  2.4161680E-03
 3.4392130E-03  2.6494160E-03  3.2471230E-03  2.8640810E-03  1.7779240E-03  2.9372840E-03 -1.6064680E-03 -3.5313590E-03 -2.5235730E-03  2.9159550E-03
 2.8324690E-03  3.0639800E-03 -2.7685470E-03  4.2797440E-03  4.2976510E-03  3.6308650E-03  6.9691690E-04 -2.3451240E-03 -2.2690820E-03 -2.9465240E-03
-3.5325580E-03 -2.7917850E-03 -3.1444850E-03 -3.6034900E-03 -3.3125980E-03 -3.5917810E-03 -1.5644530E-03 -2.2137440E-03 -6.8863300E-04 -2.8902160E-03
-2.5221470E-03 -2.0806610E-03 -1.7617780E-03 -2.7453930E-03 -2.7061190E-03  3.5402800E-03  6.4459290E-05 -3.1373790E-03  2.9508700E-03  2.9497630E-03
 2.7017220E-03  2.1323090E-03  2.0981690E-03  2.5747550E-03  2.1695620E-03  1.8514540E-03  1.4326910E-03 -3.0717810E-03  2.9909020E-03  1.9466770E-03
-3.4318470E-03 -1.5731820E-03 -2.2822630E-03  9.5399490E-04  3.0199740E-03 -5.8839620E-04  2.1752300E-03  2.5732090E-03  5.0038930E-04 -1.6593250E-04
 2.2073490E-03 -4.0289010E-03 -3.6280940E-03 -2.9215040E-03 -3.5835150E-03 -4.3720940E-03 -3.7996120E-03 -3.3983450E-03 -2.9443050E-03 -3.2940580E-03
-9.5564930E-04  6.1247480E-04  5.3730030E-04 -1.7306400E-04 -4.5893570E-04 -1.1741920E-03 -8.7034290E-04  7.5045420E-05  5.0063110E-04 -3.7400080E-03
 8.9515650E-05 -5.2849120E-04  2.2406030E-03  1.5853080E-03 -8.3600520E-04 -1.5139470E-03 -2.6022250E-03 -2.2828520E-03 -1.0509810E-03 -1.7379890E-03
-1.4663260E-04 -2.4848470E-04 -5.7011410E-04 -1.7849830E-03 -3.5612830E-03 -7.4978090E-05  4.5867610E-04  1.6898920E-03 -1.2606060E-03 -5.0237030E-05
 1.0215820E-03  3.6595660E-03  9.4539850E-04 -2.9085520E-03 -3.1074560E-03  3.0882400E-03  3.7494150E-03  2.9994450E-03  2.9668980E-03  3.7382930E-03
 3.1245670E-03  1.4390560E-03  7.4392240E-04  1.2616040E-03  1.1607470E-03  3.5956240E-03  3.5242400E-03  3.1165750E-03  3.5382700E-03  2.7079920E-03
 1.6395270E-03  3.5257390E-03  2.8925980E-03  4.2650710E-03 -4.3532380E-03 -4.2832760E-03  6.9647770E-08  3.5420430E-03  1.8892560E-03  2.8358400E-03
 2.2175710E-03  4.1911610E-03  3.7163650E-03  3.4427000E-03  2.8255240E-03 -3.0507710E-03  8.8075550E-04 -7.8437940E-06  4.6663200E-04 -1.0192560E-03
 3.7858720E-03  3.5953970E-03  2.7737470E-03  3.4514860E-03  2.9694910E-03  3.3795820E-03  5.6752730E-04  1.0128870E-03  3.6263170E-03  3.7448960E-03
 4.1541550E-03  3.6763820E-03  2.9379850E-03  3.0682650E-03 -2.2196910E-03  4.3217910E-03 -1.9349100E-03 -3.3676850E-03  1.3658030E-03  1.1048040E-03
-1.5069380E-04 -7.9908150E-04  3.8781150E-04 -2.7572320E-03 -3.5309490E-03 -3.6584950E-03  1.1241610E-05  6.1476010E-04  8.2530110E-04  3.3451280E-03
-7.9255270E-04 -6.3238400E-04 -5.7666840E-05  3.5374800E-03  4.3307270E-03  1.6221250E-03  2.2090540E-03  2.8567860E-03  3.5347870E-03  1.1664990E-03
 2.0970200E-03 -1.2159150E-03  3.5587990E-03 -4.3665620E-03 -3.7510520E-03 -4.3676510E-03 -3.7362550E-03  1.0420750E-03 -6.1257420E-04 -7.7384700E-05
 1.3363040E-03  2.8913250E-03  2.1344190E-03  1.1414550E-03  4.3518830E-03 -4.0715320E-03 -4.3329860E-03 -4.4363370E-03 -1.0838290E-03 -2.9979400E-03
 1.8547110E-03  2.6665170E-03 -6.4752910E-04 -1.9322050E-03 -1.2965180E-03 -2.8224240E-03 -2.6565280E-03  1.3405090E-03  6.6592570E-04  3.2000620E-03
 1.4091260E-03 -3.2290160E-03 -1.0657650E-04 -3.5803380E-03 -3.0199360E-03 -3.1255060E-03  1.3099910E-03  1.5978080E-03  2.0672980E-04 -4.2499920E-03
-3.4941500E-03 -3.0541750E-03 -3.5492740E-03  2.7192510E-03 -1.5108470E-03  4.3747760E-03 -3.4701550E-03  3.3293550E-03 -3.5161320E-03  8.7799520E-04
-4.2989390E-03  3.7384770E-04 -8.3965520E-04 -2.0938420E-04 -1.8274460E-07 -7.0954000E-04 -7.4773730E-04  7.3162590E-05 -4.5922210E-04 -1.9248200E-03
 1.8751080E-03  2.9352130E-03  4.3080650E-03  3.3108380E-03  3.5998440E-03  3.0038330E-03  2.6260420E-03  3.3968010E-03 -1.3879360E-03 -1.3388220E-03
 1.1760800E-04 -3.0998110E-03 -3.6729360E-03 -2.8976560E-03 -7.0588330E-04 -3.7061990E-03  2.7246700E-03 -1.9859090E-03 -2.3323830E-03 -1.1834670E-03
-1.2460320E-03 -4.2316970E-03 -3.3878320E-03 -1.0028190E-03 -4.3318830E-03 -4.2702780E-03 -4.6317030E-04 -4.0422200E-03 -3.5932510E-03 -1.1586350E-03
 1.6581730E-03  3.6144860E-03  7.7385160E-04 -1.5450040E-05  2.9164910E-03  2.9029060E-03 -2.7056340E-03  4.3478360E-03  4.2031730E-03  2.1069650E-03
 2.1940410E-03  2.2332070E-03  7.6728110E-04  6.9209980E-04 -1.0594100E-03 -1.6393160E-03 -3.5307180E-03  1.1063160E-03 -2.2473160E-03 -1.1492300E-03
-3.5316250E-03 -2.9798490E-03 -1.5172740E-03  3.1734280E-03  3.7786740E-03 -2.7341710E-03 -4.3049090E-03 -3.6027220E-03 -3.4904090E-03  3.6156640E-03
 3.2395210E-03 -4.2924920E-03 -1.7578170E-03  4.3283910E-03  4.3265180E-03  4.3225020E-03  3.7084210E-03 -4.5833480E-03 -2.8810230E-03 -4.3554450E-03
-4.0442650E-03 -4.4238310E-03  5.6740120E-04  2.0158240E-03 -3.4529000E-05  6.1759680E-04 -3.9102170E-03 -4.3981700E-03  2.4884260E-03  1.4443250E-03
 2.0545530E-03  2.4408260E-03  3.3318420E-03 -1.5301050E-03 -1.4537230E-03 -1.0383940E-03 -5.7499170E-04 -4.3888970E-03 -8.7105900E-04 -3.4341750E-04
-4.3897960E-03 -1.0005740E-03 -1.7860030E-03  3.3476470E-03  2.4964360E-03  2.2512410E-03  3.8583390E-03  3.5838030E-03 -1.9925460E-03  1.4714980E-03
-2.1962820E-03 -4.3668720E-03 -4.3617710E-03 -4.4851860E-04 -4.3377820E-03 -3.1474190E-03  1.4542080E-03  1.2878610E-03  1.8654150E-03  4.3721720E-03
 4.3464280E-03 -2.2272940E-03  4.2938700E-03  2.6085700E-03  4.2210100E-03 -1.2953540E-03 -8.3339440E-04  4.2428600E-03  4.2790910E-03 -3.5911500E-03
 9.9285550E-04 -3.8142920E-03 -2.8225440E-03  4.3460950E-03 -3.2397570E-03 -1.2583700E-03  4.3633980E-03  2.6037600E-03  8.0383820E-04  5.8382270E-04
 1.5766540E-03  3.6474930E-03  7.0649810E-04  4.3528450E-03 -5.5701170E-04 -8.9601690E-05 -4.1098350E-04  4.2471630E-03  3.6700230E-03  4.4153020E-03
 4.2955390E-03 -2.9542470E-03 -3.5502040E-03 -1.0203760E-03 -1.4176610E-03 -6.9794950E-04 -3.3373000E-03 -4.5519350E-03 -2.7900970E-03 -1.7751460E-03
-1.5972960E-03 -1.1289390E-03  1.1729430E-03  3.7392620E-03  3.7579740E-03  3.4906160E-03  3.9905490E-03  2.2729970E-03 -2.1898030E-03  5.4497940E-04
 3.5955010E-03  4.3298740E-03  3.3238720E-03  1.4776860E-03  6.1854010E-04  2.6354860E-03  4.3294780E-03  4.3767660E-03  3.6453150E-03  4.3443310E-03
 1.1946700E-03  2.2492050E-03 -1.1251880E-03  4.3009510E-03  4.3752820E-03  4.5876350E-03  4.3382750E-03  4.1366520E-03  3.4944090E-03 -3.7107820E-03
 3.5367070E-03  2.4342880E-03 -9.3242870E-05  1.6372700E-04  2.0160500E-04 -9.3119350E-04 -2.2412860E-03 -2.3062930E-03 -1.0270730E-03 -1.0459300E-03
 2.0464330E-04 -5.4114430E-04 -1.0239040E-04 -9.1644450E-05 -9.1816910E-04 -4.3295230E-03 -6.5892940E-04  2.1989230E-03 -6.1327630E-04 -2.3419930E-03
 8.3496930E-06 -1.4206640E-05  3.0130770E-03 -2.9765580E-03 -1.7390510E-03 -2.4239160E-03  2.8530810E-03  8.3023880E-04  9.2131260E-05  3.7021690E-03
-9.8913540E-04 -7.5135740E-04 -6.7677370E-05  1.0645150E-03 -1.2430120E-03  2.3008530E-03  1.8069950E-03 -1.9242360E-04  1.2939230E-03 -4.1138700E-03
 2.1586110E-03  2.9652270E-03  3.2145850E-03  2.2983620E-03  2.1304160E-03  3.3569480E-05 -4.2139250E-04  3.6347640E-03  4.2790160E-03  1.2453420E-03
 7.7545340E-05 -4.1768120E-04  1.7083720E-03  3.7105900E-03 -6.7325140E-04 -1.3783780E-03  5.0353160E-04  1.6961880E-03 -3.2124600E-07 -3.6461110E-03
-2.2832050E-03 -2.8775860E-03 -2.2679340E-03 -4.3436230E-03  3.5558710E-03 -2.7530820E-03 -5.7358330E-04  4.1640370E-04 -4.2102930E-03 -4.3473400E-03
 2.0300260E-03  2.7092390E-03  2.8839040E-03  1.2127690E-03 -3.2735680E-03  3.5898340E-03 -1.5509990E-03 -1.8188330E-04 -2.9983330E-03  1.0507270E-03
 4.3580800E-03  4.3751420E-03 -1.2177700E-03  2.1736120E-03  6.1260160E-04  2.6373540E-03 -4.3916080E-03 -1.7388790E-04  1.5738040E-04  4.4040840E-03
-1.5304660E-03 -2.9576660E-03  3.9458510E-04  2.2842740E-03 -1.1956740E-03 -1.2770840E-05  3.4440940E-03  1.1133550E-03  1.1967830E-03  4.0174680E-04
-3.8591880E-03 -2.2686840E-05 -4.3548680E-03  4.5894370E-04 -3.7389650E-03  2.0839930E-03  1.6680370E-04  4.3475290E-03 -4.3758850E-03 -6.2682160E-04
-4.3107160E-04 -4.2929600E-03  4.2850390E-03 -1.8096590E-03 -2.2446860E-03 -3.9702190E-03  1.1763890E-03  4.3179590E-04  1.0485470E-03  1.3260750E-03
-1.4928020E-06 -1.5974040E-03  6.5403580E-04 -4.9320160E-04 -4.3144830E-03  1.5966020E-03 -4.3747490E-03 -4.3917940E-03 -1.0907760E-03 -5.6396080E-04
-1.7486690E-03  3.5765790E-03 -4.3214030E-03 -1.3973580E-03  3.1770770E-03  2.6332850E-03  2.8725240E-03  4.3162270E-03  3.1064220E-03  3.4481410E-03
 6.8029170E-04  7.3877180E-04  1.9433500E-03  3.5177900E-03  7.4305110E-05  5.9185300E-04  7.4607540E-04  1.8110850E-03 -3.2230920E-04  1.3395250E-05
 5.0102730E-04  6.8373240E-04  3.6459110E-03  4.1765580E-03  8.5614620E-04 -8.9478870E-05  6.2951420E-04  3.6076950E-03  3.6983840E-03 -2.1157580E-03
-2.0666110E-03  1.4497190E-03 -3.7451800E-03 -3.5058490E-03 -4.1622930E-03  1.5329370E-03 -2.5814200E-03  7.5860820E-04 -1.8505570E-04  6.3858900E-04
-3.0822800E-03 -3.3826640E-03 -3.5232230E-03  2.1948000E-03 -6.3502470E-04  2.0177720E-04 -4.2848040E-03  3.5851510E-03 -1.0907500E-03  1.8512780E-03
 9.6985700E-04 -3.6161260E-03 -3.7158120E-03 -3.1829110E-03 -3.3914860E-03  8.6758870E-05 -2.6955970E-03 -3.5325130E-03  1.0944770E-05 -1.5115010E-03
 1.9576000E-03
 4.9898640E-03  4.0549660E-07 -4.0549660E-07 -4.9898640E-03  4.0632030E-07  4.9898650E-03  5.0000000E-03  5.0000000E-03  0.0000000E+00 -5.5511150E-18
 4.9902710E-03  5.0000000E-03 -4.9898640E-03 -5.0000000E-03 -5.0000000E-03  5.0000000E-03  4.9898640E-03 -4.0632030E-07  0.0000000E+00 -4.9898650E-03
 5.5511150E-18 -5.0000000E-03 -5.0000000E-03 -4.9902710E-03  4.2885940E-03  3.5712100E-03  2.8538270E-03  2.1364430E-03  1.4190600E-03  7.0167610E-04
 7.0097910E-04  1.4184790E-03  2.1359790E-03  2.8534790E-03  3.5709800E-03  4.2884800E-03 -4.2885940E-03 -3.5712100E-03 -2.8538270E-03 -2.1364430E-03
-1.4190600E-03 -7.0167610E-04 -7.0097910E-04 -1.4184790E-03 -2.1359790E-03 -2.8534790E-03 -3.5709800E-03 -4.2884800E-03  7.0167700E-04  1.4190600E-03
 2.1364440E-03  2.8538270E-03  3.5712110E-03  4.2885940E-03  5.0000000E-03  5.0000000E-03  5.0000000E-03  5.0000000E-03  5.0000000E-03  5.0000000E-03
 4.2885100E-03  3.5710410E-03  2.8535720E-03  2.1361030E-03  1.4186340E-03  7.0116510E-04  7.0124930E-04  1.4188040E-03  2.1363580E-03  2.8539130E-03
 3.5714680E-03  4.2890220E-03  5.0000000E-03  5.0000000E-03  5.0000000E-03  5.0000000E-03  5.0000000E-03  5.0000000E-03 -4.2884800E-03 -3.5709790E-03
-2.8534790E-03 -2.1359790E-03 -1.4184790E-03 -7.0097840E-04 -7.0116500E-04 -1.4186340E-03 -2.1361030E-03 -2.8535720E-03 -3.5710410E-03 -4.2885100E-03
-5.0000000E-03 -5.0000000E-03 -5.0000000E-03 -5.0000000E-03 -5.0000000E-03 -5.0000000E-03  5.0000000E-03  5.0000000E-03  5.0000000E-03  5.0000000E-03
 5.0000000E-03  5.0000000E-03  4.2884800E-03  3.5709790E-03  2.8534790E-03  2.1359790E-03  1.4184790E-03  7.0097840E-04  7.0116500E-04  1.4186340E-03
 2.1361030E-03  2.8535720E-03  3.5710410E-03  4.2885100E-03 -4.2885100E-03 -3.5710410E-03 -2.8535720E-03 -2.1361030E-03 -1.4186340E-03 -7.0116510E-04
-7.0167700E-04 -1.4190600E-03 -2.1364440E-03 -2.8538270E-03 -3.5712110E-03 -4.2885940E-03  5.0000000E-03  5.0000000E-03  5.0000000E-03  5.0000000E-03
 5.0000000E-03  5.0000000E-03  4.2890220E-03  3.5714680E-03  2.8539130E-03  2.1363580E-03  1.4188040E-03  7.0124930E-04 -5.0000000E-03 -5.0000000E-03
-5.0000000E-03 -5.0000000E-03 -5.0000000E-03 -5.0000000E-03 -5.0000000E-03 -5.0000000E-03 -5.0000000E-03 -5.0000000E-03 -5.0000000E-03 -5.0000000E-03
-5.0000000E-03 -5.0000000E-03 -5.0000000E-03 -5.0000000E-03 -5.0000000E-03 -5.0000000E-03 -7.0124930E-04 -1.4188040E-03 -2.1363580E-03 -2.8539130E-03
-3.5714680E-03 -4.2890220E-03 -4.2890220E-03 -3.5714680E-03 -2.8539130E-03 -2.1363580E-03 -1.4188040E-03 -7.0124930E-04  3.3792810E-03  2.5968750E-03
 1.8827130E-03  3.6134290E-04  1.0954130E-03  1.8824070E-03  2.5999070E-03  3.3084100E-03  1.1123710E-03 -3.3799700E-03 -2.5971010E-03 -1.8827130E-03
-1.1653290E-03 -4.8709300E-04  4.5619840E-04 -3.8183670E-04 -1.1441290E-03 -1.8824070E-03 -2.5999070E-03 -3.3087970E-03 -2.3546950E-03 -1.6288340E-03
-9.1133390E-04 -6.1879010E-05 -6.5609130E-05 -9.1159870E-04 -1.6437830E-03  2.3457940E-03  1.6288340E-03  8.7910900E-04  8.8681370E-04  1.6420140E-03
 1.2911900E-03  6.1745780E-04 -4.4060650E-05  6.0845170E-04 -4.4808910E-05 -1.3530870E-03 -6.1828660E-04 -6.0790970E-04  1.0291080E-04  4.2929120E-03
 4.2929120E-03  2.8486510E-03  1.4138840E-03  3.5660340E-03  4.2929120E-03  2.1312670E-03  4.2929120E-03  4.2929120E-03  3.5661200E-03  2.8487360E-03
 2.1313530E-03  3.5760010E-03  2.8383980E-03  3.5758100E-03  3.5662050E-03  2.8486510E-03  2.1310960E-03  1.4135420E-03  2.1309700E-03  2.8484390E-03
 3.5659080E-03  4.2833770E-03  4.2929120E-03  4.2929120E-03  4.2929120E-03  4.2929120E-03  3.5758950E-03  2.8381210E-03  3.5760500E-03  3.6168620E-04
 1.0957470E-03  2.5893620E-03  3.3012870E-03  1.8827630E-03 -3.3799210E-03 -2.5973460E-03 -1.8824060E-03 -1.1649060E-03 -4.8641040E-04 -3.6162120E-04
-1.0954200E-03 -1.8824150E-03 -2.5998840E-03 -3.3087660E-03  3.3931710E-03  2.6054260E-03  1.8824150E-03  1.1649460E-03  4.8669940E-04  6.4345890E-05
 9.1125870E-04  2.3577500E-03 -2.3553850E-03 -1.6287270E-03 -8.8549690E-04 -6.3790660E-05 -9.1133340E-04 -1.6507250E-03  1.6290820E-03  1.6434010E-03
 8.8568540E-04 -2.6435970E-05  1.3572740E-03  6.6752110E-04 -1.3529450E-03 -6.9262030E-04  4.4126050E-05 -6.0206550E-04  6.1509430E-04  1.0596920E-10
-4.2928550E-03 -4.2928550E-03 -4.2928550E-03 -2.8482730E-03 -1.4132730E-03 -3.5657730E-03 -2.1307730E-03 -4.2832730E-03 -3.5657730E-03 -4.2928550E-03