 TITLE = "./NEBs/Sphere_20.0nm_Mesh_2nm_ENDs"
 VARIABLES = "X","Y","Z","Mx","My","Mz", "SD"
 ZONE T="",  N=1125,  E=5476
 F=FEBLOCK, ET=TETRAHEDRON, VARLOCATION=([7]=CELLCENTERED)
  -0.6123234E-18  -0.6123234E-18  -0.1950903E-02  -0.3826834E-02  -0.5555702E-02  -0.7071068E-02  -0.8314696E-02  -0.9238795E-02  -0.9807853E-02  -0.1000000E-01
  -0.9807853E-02  -0.9238795E-02  -0.8314696E-02  -0.7071068E-02  -0.5555702E-02  -0.3826834E-02  -0.1950903E-02   0.1346815E-02  -0.5675573E-03  -0.5824335E-03
  -0.5695279E-03  -0.2745466E-02  -0.4613946E-02  -0.7592901E-02  -0.7592901E-02  -0.9416628E-02  -0.9416628E-02  -0.9801071E-02  -0.9416628E-02  -0.9416628E-02
  -0.8668548E-02  -0.7592901E-02  -0.6220501E-02  -0.4613946E-02  -0.2745345E-02  -0.4613946E-02  -0.6220501E-02  -0.6220501E-02  -0.8668548E-02  -0.8668548E-02
  -0.9801071E-02  -0.9801071E-02  -0.9801071E-02  -0.8668548E-02  -0.7592901E-02  -0.6220501E-02  -0.2759164E-02  -0.4613946E-02  -0.2757053E-02   0.1347138E-02
  -0.5677160E-03  -0.1544485E-02  -0.1544485E-02  -0.1544485E-02  -0.1544485E-02   0.1127808E-02   0.1136944E-02  -0.3513481E-02  -0.5157016E-02  -0.6596114E-02
  -0.7770828E-02  -0.9400085E-02  -0.3513481E-02  -0.5157016E-02  -0.3513481E-02  -0.5157016E-02  -0.6596114E-02  -0.7770828E-02  -0.8653418E-02  -0.8653418E-02
  -0.9209166E-02  -0.9209166E-02  -0.9400085E-02  -0.9209166E-02  -0.8653418E-02  -0.8653418E-02  -0.9209166E-02  -0.7770828E-02  -0.6596114E-02  -0.7770828E-02
  -0.6596114E-02  -0.5157016E-02  -0.3513481E-02   0.1131348E-02   0.1137100E-02  -0.2192731E-02  -0.2192731E-02  -0.2192731E-02  -0.2192731E-02  -0.3954929E-02
  -0.6605185E-02  -0.5398541E-02  -0.6605185E-02  -0.7567154E-02  -0.8249318E-02  -0.7567154E-02  -0.8249318E-02  -0.8602378E-02  -0.8602378E-02  -0.8249318E-02
  -0.8249318E-02  -0.7567154E-02  -0.6605185E-02  -0.3954929E-02  -0.5398541E-02  -0.3954929E-02  -0.5398541E-02  -0.8602378E-02  -0.8602378E-02  -0.7567154E-02
  -0.6605185E-02  -0.5398541E-02  -0.3954929E-02   0.4611446E-03   0.3618146E-03   0.3636743E-03   0.4610943E-03   0.2790018E-02   0.2791534E-02   0.2790151E-02
   0.2790924E-02   0.4430023E-02   0.4430100E-02  -0.4061410E-02  -0.5253571E-02  -0.6230157E-02  -0.7594586E-02  -0.4063223E-02  -0.4063223E-02  -0.5253553E-02
  -0.6230061E-02  -0.6968223E-02  -0.7441721E-02  -0.6968223E-02  -0.7441721E-02  -0.7594586E-02  -0.7441721E-02  -0.6968223E-02  -0.7441721E-02  -0.6968223E-02
  -0.6230446E-02  -0.5253995E-02  -0.5253796E-02  -0.6230066E-02  -0.4051989E-02  -0.2566567E-02  -0.2566567E-02  -0.2566567E-02  -0.2566567E-02   0.2411559E-02
   0.2691751E-02   0.2413065E-02   0.2691755E-02  -0.2830982E-03  -0.2830982E-03  -0.2830982E-03  -0.2830982E-03  -0.2513290E-02  -0.4793883E-02  -0.3773397E-02
  -0.4793745E-02  -0.5437163E-02  -0.5960937E-02  -0.5437163E-02  -0.5960937E-02  -0.6274485E-02  -0.6271158E-02  -0.5960937E-02  -0.5960937E-02  -0.5437163E-02
  -0.4792964E-02  -0.2504235E-02  -0.3763688E-02  -0.2516231E-02  -0.3773236E-02  -0.6272617E-02  -0.6271897E-02  -0.5437163E-02  -0.4795361E-02  -0.3770241E-02
  -0.2513184E-02  -0.8732095E-03  -0.8797931E-03  -0.8797930E-03  -0.8732111E-03   0.1868398E-02   0.1619061E-02   0.1619967E-02   0.1868392E-02   0.4392613E-02
   0.4037648E-02   0.4392631E-02   0.4037687E-02  -0.3641366E-02  -0.3629075E-02  -0.3633345E-02  -0.3619235E-02  -0.2176661E-02  -0.4823490E-02  -0.2165075E-02
  -0.2150869E-02  -0.4157660E-02  -0.4226423E-02  -0.4825912E-02  -0.4267048E-02  -0.4200602E-02  -0.2173680E-02   0.5647742E-02   0.5979499E-02   0.5647742E-02
   0.5979502E-02  -0.1189651E-02  -0.1185913E-02  -0.1185783E-02  -0.1190284E-02   0.3633476E-02   0.4203047E-02   0.3642850E-02   0.4203055E-02   0.9830871E-03
   0.9830871E-03   0.9830871E-03   0.9830871E-03   0.7113781E-02   0.7113781E-02  -0.4236913E-03  -0.2975879E-02  -0.2960676E-02  -0.4117770E-03  -0.4159460E-03
  -0.4236026E-03  -0.2050482E-02  -0.2342602E-02  -0.2064860E-02  -0.2365126E-02   0.3928914E-03   0.3924106E-03   0.3924106E-03   0.4018718E-03   0.2990954E-02
   0.2830441E-02   0.2844561E-02   0.2990929E-02   0.5866486E-02   0.5202818E-02   0.5866467E-02   0.5206772E-02   0.1553199E-02  -0.1120674E-02   0.1658072E-02
   0.1675371E-02  -0.9560374E-03   0.1553199E-02   0.6751262E-02   0.7322556E-02   0.6751262E-02   0.7322414E-02   0.4704652E-02   0.5869876E-02   0.4683428E-02
   0.4761015E-02   0.5869904E-02   0.4683395E-02   0.2183331E-02   0.2062718E-02   0.2064737E-02   0.2183331E-02  -0.7437780E-03  -0.4233242E-03  -0.7010004E-03
  -0.4198271E-03   0.5865281E-02   0.5867744E-02   0.3401039E-02   0.7377853E-03   0.3557337E-02   0.3577215E-02   0.5043591E-03   0.3474497E-02   0.8316997E-02
   0.8067627E-02   0.8067627E-02   0.8316997E-02   0.1150315E-02   0.1382999E-02   0.1357146E-02   0.1121419E-02  -0.1522006E-03  -0.1701991E-03   0.4068878E-02
   0.4065862E-02   0.7187181E-02   0.6271818E-02   0.3545189E-02   0.7187043E-02   0.6213198E-02   0.3558897E-02   0.1155996E-02   0.9070555E-02   0.9070555E-02
   0.5214766E-02   0.2327870E-02   0.5239890E-02   0.3212004E-02   0.5242459E-02   0.3312798E-02   0.2624940E-02   0.3008196E-02   0.9097565E-03   0.2973319E-02
   0.7634939E-02   0.8417913E-02   0.7698298E-02   0.8416791E-02   0.7037158E-02   0.4975908E-02   0.6161150E-02   0.7045169E-02   0.1494054E-02   0.1496882E-02
   0.4735962E-02   0.6218004E-02   0.4335654E-02   0.3120709E-02   0.3376462E-02   0.4214137E-02   0.2994903E-02   0.6735652E-02   0.6746041E-02   0.2628689E-02
   0.4864845E-02   0.9219048E-02   0.8822828E-02   0.8754311E-02   0.9221659E-02   0.1771378E-02   0.8206529E-02   0.7354386E-02   0.8199519E-02   0.6769730E-02
   0.4606375E-02   0.5897808E-02   0.8420115E-02   0.6038631E-02   0.4422453E-02   0.9719695E-02   0.9526968E-02   0.9522792E-02   0.9722107E-02   0.6472733E-02
   0.5104230E-02   0.5160965E-02   0.7972543E-02   0.9213287E-02   0.9203133E-02   0.7872073E-02   0.7892388E-02   0.7650200E-02   0.9909449E-02   0.9944867E-02
   0.6149355E-02   0.4902497E-02   0.7591158E-02   0.7591213E-02   0.9809674E-02   0.8903758E-02   0.9804820E-02   0.8893813E-02   0.7464150E-02   0.8886639E-02
   0.6561652E-02   0.6504192E-02   0.5579911E-02   0.7588224E-02   0.9508084E-02   0.9599355E-02   0.7444506E-02   0.8501465E-02   0.7269990E-02   0.8354172E-02
   0.7128636E-02   0.6118415E-02   0.9499087E-02   0.9246046E-02   0.8508689E-02   0.8405202E-02   0.8779155E-02   0.9055170E-02   0.1302882E-03   0.5814499E-03
  -0.1350779E-02  -0.9371530E-03  -0.1128017E-02  -0.7603163E-03  -0.8843940E-03  -0.2054061E-02  -0.1513152E-02  -0.2280714E-02  -0.6512898E-03  -0.7932522E-03
  -0.2371376E-03   0.5199331E-03   0.9881590E-03   0.4986929E-03  -0.1066140E-02  -0.1802354E-03  -0.1878479E-02  -0.1056383E-02   0.2845583E-02   0.1501041E-02
   0.1500521E-02  -0.5989656E-03   0.5566709E-03  -0.9309255E-03  -0.2971245E-02  -0.2624728E-02  -0.1630474E-02  -0.4060267E-02  -0.4069829E-02  -0.3143399E-02
  -0.2446266E-02  -0.1350923E-02  -0.6733391E-03   0.6728638E-03   0.1269573E-02  -0.2748376E-03   0.5333258E-03   0.3435059E-03   0.5177563E-02   0.3893277E-02
   0.4736574E-02   0.3480358E-02   0.4393084E-02   0.3171512E-02   0.2392539E-02   0.2663915E-02   0.2544253E-02   0.2037302E-02   0.1283828E-02   0.2168000E-02
   0.1259704E-02   0.2437942E-02   0.3747439E-03   0.5287458E-04   0.4357785E-02  -0.2827444E-03  -0.1802208E-02  -0.1543418E-02  -0.2514569E-02   0.6277152E-02
   0.1311170E-02   0.2225265E-02  -0.1807386E-02  -0.4643536E-03  -0.1326772E-02   0.1433254E-02   0.2322959E-02   0.4050716E-03   0.2372056E-02   0.2128368E-03
   0.9977034E-03   0.1016113E-02  -0.2566292E-02  -0.8680940E-03  -0.2314563E-02  -0.1737297E-02  -0.4708731E-02  -0.3672202E-02  -0.4311832E-02  -0.3211182E-02
  -0.1656154E-02  -0.3932209E-02  -0.3069257E-02  -0.2745725E-02  -0.3554480E-02  -0.6935454E-03  -0.1800337E-02  -0.8499277E-02  -0.2681145E-02  -0.1226318E-02
   0.5346349E-03   0.7550103E-04   0.1160486E-02   0.5116189E-03  -0.1111232E-02   0.7137714E-02  -0.3672931E-02  -0.3284370E-02  -0.1865135E-02  -0.3305160E-02
  -0.4083958E-02  -0.3078997E-02  -0.4451481E-02  -0.3748989E-02  -0.2725293E-02  -0.4007280E-02  -0.2144008E-02  -0.2765761E-02  -0.1747712E-02  -0.5574155E-02
  -0.1539952E-03   0.3892503E-02   0.2348631E-02   0.1301320E-02   0.2554435E-02   0.1957626E-02   0.7381509E-03   0.1750106E-02   0.3978293E-02   0.4243571E-02
   0.3013665E-02   0.1366224E-02   0.2765087E-02  -0.1258382E-03  -0.1267186E-02  -0.1284292E-02  -0.2027301E-02  -0.3094118E-02  -0.1841872E-02  -0.4471760E-02
  -0.4240252E-02  -0.4012533E-02   0.6121058E-02   0.5106876E-02   0.3941837E-02   0.4959553E-02   0.5057759E-02   0.2834343E-02   0.5613092E-02   0.4387565E-02
  -0.1141217E-02  -0.2112046E-02  -0.1835772E-02  -0.2820345E-02   0.2676671E-02  -0.2597482E-02  -0.1782355E-02  -0.3347284E-02  -0.2196675E-02  -0.3642201E-03
   0.2158852E-03  -0.7671194E-03   0.2416711E-03  -0.2733389E-02  -0.1553699E-02  -0.8133260E-03  -0.7328058E-02   0.1879859E-02   0.1857260E-02   0.2489226E-02
   0.2465963E-02   0.3493162E-02   0.3333906E-02   0.1081010E-03  -0.1365864E-02  -0.4075802E-03   0.5678596E-03  -0.4644216E-02  -0.4172231E-03   0.9894133E-03
   0.8011395E-02  -0.4446484E-02   0.2152750E-02  -0.1700654E-02   0.4001657E-02   0.4669827E-02   0.3901805E-02   0.3582453E-02  -0.3218560E-02  -0.2318100E-02
  -0.3881471E-02  -0.4072823E-02  -0.3286515E-02   0.5204173E-03   0.4754666E-04   0.2121049E-03  -0.1488962E-02   0.4903757E-03   0.1373420E-02  -0.3952527E-03
  -0.3277927E-02  -0.1805565E-02  -0.2917715E-02  -0.5027259E-02   0.2291274E-02   0.4238922E-02   0.3961794E-02  -0.3316039E-02  -0.4950339E-02  -0.3027852E-02
  -0.1858696E-02   0.3865454E-02  -0.4488187E-02  -0.5288284E-02   0.1730542E-02   0.1336227E-02  -0.3353957E-03   0.2019992E-02   0.4331829E-03   0.2132974E-02
  -0.2677801E-02  -0.6943887E-03  -0.2797758E-02  -0.2328122E-02  -0.4483062E-02  -0.3894695E-02   0.4217871E-02   0.5475731E-02   0.6069984E-02   0.2855810E-02
   0.6048746E-02   0.3814025E-02  -0.3861654E-02   0.4692312E-02   0.3808361E-02   0.6031171E-02   0.6639449E-02   0.7573696E-02   0.7065399E-02   0.7683842E-02
   0.6400570E-02   0.6952793E-02  -0.2978978E-02   0.1952978E-02   0.3705958E-02   0.5268781E-02   0.1901031E-02   0.8216211E-02  -0.1539871E-02  -0.9080914E-03
  -0.2906338E-02  -0.1567593E-02  -0.3730185E-03   0.8792470E-03  -0.2266311E-04  -0.7937376E-04  -0.2646596E-02   0.4803939E-03   0.1264349E-02   0.5745843E-02
   0.5694970E-02   0.4398521E-02   0.6135598E-02   0.6962584E-02   0.4857083E-02   0.6278337E-02   0.7085413E-02   0.7834875E-02   0.7246216E-02  -0.4832330E-02
  -0.3730186E-02  -0.4193151E-02  -0.6075409E-02  -0.5195265E-02   0.7674154E-02  -0.3840502E-02   0.8724515E-03   0.8175424E-02   0.3304423E-02   0.3708254E-02
   0.4940746E-02   0.3202872E-02   0.3824996E-02   0.5400665E-02   0.5992585E-02   0.5891432E-02   0.3996150E-02   0.3346671E-02   0.4271111E-02   0.3476052E-02
   0.3828571E-02   0.3742609E-02   0.5387379E-02   0.2917483E-02   0.3840470E-02   0.3180037E-02   0.3698012E-02   0.6513827E-02   0.5612052E-02   0.7750750E-03
   0.6739783E-02   0.4192620E-02   0.5279155E-02   0.3636604E-02   0.5467712E-02   0.6887294E-02  -0.3308743E-02   0.4679437E-02   0.5772087E-02   0.2734703E-02
   0.2561333E-02   0.4570900E-02   0.3644629E-02   0.2547418E-02   0.1424848E-02   0.2721598E-02  -0.2680822E-02  -0.1874702E-02  -0.1136433E-02  -0.1251290E-02
  -0.3107378E-02  -0.1425546E-02  -0.3472443E-02  -0.7076553E-02  -0.1805901E-03   0.1160882E-02   0.1359507E-03   0.1363006E-02   0.2794335E-02   0.1224074E-02
   0.3513216E-03   0.1411316E-02   0.2259234E-02   0.1636332E-02   0.1416225E-02   0.7781562E-02  -0.5968297E-03   0.3509239E-02   0.1955378E-02   0.2492919E-02
   0.8630383E-03   0.7748830E-02   0.6345187E-02   0.7658993E-02   0.6275124E-02  -0.9629002E-03  -0.1147652E-03   0.1988334E-03  -0.9235551E-03  -0.1689955E-02
   0.4115053E-03   0.2589857E-02   0.1106207E-02   0.2498276E-02   0.2644740E-02   0.6017848E-03  -0.5144531E-02  -0.4881120E-02  -0.6046458E-02  -0.5888418E-02
  -0.5504801E-02  -0.6352723E-02  -0.5952886E-02  -0.7144342E-02  -0.6497484E-02  -0.4022608E-02  -0.3984965E-02  -0.6882008E-02   0.5886299E-02  -0.5956686E-02
  -0.5927743E-02  -0.6838202E-03   0.3259900E-02   0.5135132E-02  -0.2805679E-02  -0.2700040E-02  -0.3152355E-02  -0.3955617E-02  -0.1633118E-02  -0.2971003E-02
  -0.4929693E-02   0.2335770E-02  -0.4426779E-02  -0.3408175E-02   0.3964445E-02   0.6776178E-02   0.7374583E-02   0.7463914E-02   0.3184937E-02   0.7065300E-02
   0.6010800E-02   0.5824273E-02   0.4714564E-02   0.7672968E-02   0.6739005E-02   0.7068908E-02   0.5176763E-02   0.2698644E-02   0.4104824E-02  -0.1823873E-02
   0.3044153E-02   0.3622515E-02   0.3619588E-02   0.2649522E-02   0.6716783E-02   0.4594597E-02  -0.1949592E-04  -0.3184411E-02  -0.2180766E-02  -0.1201709E-02
  -0.4789021E-03  -0.2741719E-02  -0.1072334E-02  -0.2328324E-02  -0.1122948E-02  -0.3652108E-02  -0.1329345E-02  -0.4797534E-02  -0.1154715E-03  -0.4065916E-02
  -0.4595091E-02  -0.4465690E-02  -0.5028442E-02  -0.4697882E-02  -0.3379948E-02  -0.3591230E-02  -0.6531204E-02  -0.6496019E-02  -0.5497966E-02   0.2199032E-02
  -0.2116085E-02  -0.1443235E-02   0.5988891E-02  -0.5127418E-02  -0.3584771E-02  -0.2214671E-02  -0.4814804E-02   0.1406401E-02   0.1309851E-02   0.7665312E-03
   0.3229348E-02   0.1990139E-02   0.4755450E-02  -0.5826350E-02  -0.5149890E-02  -0.1542973E-02   0.6164930E-02   0.6003869E-02  -0.7774547E-02  -0.6205311E-02
  -0.7905866E-02  -0.6196064E-02  -0.4222433E-03  -0.3585229E-02  -0.4963939E-03  -0.4731661E-04  -0.1514404E-02   0.1234254E-02   0.1914113E-03  -0.1401426E-02
  -0.7295961E-02  -0.5572750E-02  -0.2823118E-03  -0.3102824E-03  -0.1369785E-02  -0.1126840E-02   0.9256470E-03   0.3693348E-02   0.2864334E-02   0.1556551E-02
   0.2849326E-02   0.2024482E-02   0.4664054E-02  -0.4917345E-03  -0.1786542E-02   0.2269886E-02   0.3498712E-02  -0.4096871E-02  -0.4385776E-02   0.4144299E-02
  -0.3848347E-02  -0.2970738E-02  -0.5281491E-02  -0.4336058E-02  -0.5641982E-02  -0.5875598E-02  -0.4768640E-02   0.6914136E-02  -0.5972976E-02  -0.4721905E-02
   0.2956598E-02   0.3781565E-02   0.6056719E-02  -0.1331504E-02  -0.1001213E-02  -0.6865943E-03  -0.2057599E-02  -0.3590076E-02  -0.5250603E-02   0.9721016E-03
   0.2982627E-03  -0.1293887E-03   0.2601091E-02   0.3826064E-02  -0.2838845E-02   0.8095203E-02   0.5102208E-02  -0.6111910E-02  -0.4493931E-02  -0.6388003E-02
  -0.5175618E-02   0.3008052E-03  -0.3399023E-02  -0.7492542E-02  -0.6094310E-02  -0.6751255E-02  -0.2347231E-02  -0.5083082E-02   0.5330880E-02   0.5172214E-02
  -0.5221000E-02  -0.7948166E-02  -0.7013568E-02  -0.7918579E-02  -0.5856237E-02   0.6276196E-02   0.4034259E-02   0.5752381E-02  -0.6403231E-02  -0.6401575E-02
   0.4035914E-02   0.8145213E-02  -0.4094885E-02  -0.7140789E-02  -0.6497577E-02  -0.8635721E-02  -0.7900188E-02   0.1801754E-02   0.2304282E-02   0.1173068E-03
  -0.8164213E-04  -0.1598874E-02   0.5783023E-02   0.4353514E-02   0.7855317E-02   0.6917195E-02  -0.5462252E-02  -0.5442556E-02   0.2356552E-02   0.3673437E-02
  -0.1413070E-03  -0.3642082E-03   0.2790484E-03   0.2812921E-02  -0.3846970E-02  -0.7967598E-02  -0.8142498E-02  -0.5713637E-02  -0.8481468E-02  -0.8561955E-02
  -0.6564757E-02   0.4992674E-03  -0.1732734E-02  -0.2009979E-03   0.3581574E-03   0.4773001E-03   0.5002607E-02   0.5323174E-02   0.1926811E-02   0.4163354E-02
   0.6335875E-02   0.1195264E-02  -0.7123330E-02  -0.1281205E-02  -0.1323584E-02   0.2235601E-02  -0.4731812E-02  -0.2975864E-02   0.8398453E-02   0.8371443E-02
   0.8169634E-02  -0.4176819E-02  -0.4917700E-02  -0.5280625E-02  -0.5131168E-02  -0.5139535E-02   0.2704809E-02   0.3104734E-02   0.2665314E-02   0.2391548E-02
   0.3755244E-02   0.4452988E-02   0.2391311E-02   0.1139596E-02   0.4609332E-02   0.2528188E-02   0.2368738E-02   0.1323314E-02   0.4194243E-02  -0.5569098E-02
  -0.4048360E-02  -0.2902469E-02   0.4887825E-02   0.2983769E-02   0.4226892E-02   0.5521129E-02   0.6435737E-02   0.5279126E-02   0.5789787E-02  -0.2418355E-02
  -0.4749781E-02  -0.8423572E-02   0.5477166E-02  -0.5365934E-02   0.4496940E-02  -0.6092379E-02  -0.5792750E-02  -0.5299408E-02  -0.4541431E-02  -0.5852982E-02
  -0.6617637E-02   0.1757695E-02  -0.1736104E-02  -0.2988664E-02  -0.4712740E-02  -0.4856334E-02   0.1013885E-02   0.4353419E-02   0.6016718E-02  -0.7214981E-03
   0.3166175E-03   0.2989469E-02   0.1895605E-02   0.4418473E-02  -0.2992678E-02   0.6849582E-02   0.6651107E-02   0.7782526E-02   0.7559071E-02  -0.8368504E-02
  -0.1978061E-02  -0.3081536E-02  -0.6674400E-02  -0.2510011E-02   0.3324180E-02   0.5147353E-02  -0.7448543E-02  -0.2664307E-03   0.7382830E-02  -0.8285302E-02
   0.7920483E-02  -0.2917722E-02  -0.2827645E-02   0.5877208E-02   0.2258818E-02  -0.1522275E-02  -0.3400847E-02  -0.4095455E-02  -0.4552387E-02   0.4825581E-02
   0.3875843E-02  -0.5486112E-02  -0.5666125E-02  -0.5944975E-02   0.1456594E-03  -0.6938735E-02   0.7880474E-03  -0.6430640E-02  -0.6171704E-02  -0.6364204E-02
  -0.6892053E-02   0.3750740E-02   0.1519489E-02  -0.7630154E-02   0.5808069E-02   0.4091554E-03  -0.1806558E-02  -0.6893717E-02  -0.9930151E-03  -0.7883331E-02
   0.1890358E-02   0.3245545E-02  -0.9030359E-03   0.2944823E-02  -0.6257141E-02   0.5183944E-02  -0.4689197E-02  -0.2749264E-02   0.1489799E-02  -0.7379163E-02
  -0.6859656E-02   0.6657390E-03   0.5387453E-03   0.6457945E-02  -0.7373689E-02   0.5937277E-02  -0.5877555E-03  -0.1776087E-02  -0.3123236E-03   0.8559368E-02
  -0.1284686E-02   0.6978849E-02   0.7555149E-02   0.3438354E-02   0.8078353E-03  -0.7665375E-02  -0.6566412E-02   0.3173386E-02   0.3883739E-03   0.6534472E-02
  -0.3787582E-02  -0.9304057E-03  -0.5990117E-02  -0.5711484E-02  -0.7690125E-02   0.5738098E-02   0.1918608E-03  -0.7035370E-02   0.1420550E-02  -0.1776988E-02
  -0.7516934E-02  -0.4835403E-03  -0.6832617E-02  -0.6715067E-02  -0.5174094E-02  -0.4786183E-02   0.8294281E-02   0.4868930E-03   0.7343787E-03  -0.1649887E-02
  -0.3710247E-02   0.1289621E-02   0.1945422E-02   0.2624985E-02  -0.2733474E-02   0.5385957E-03   0.6835539E-02   0.4561887E-02  -0.8071338E-02   0.5590856E-02
  -0.5150116E-02  -0.6450068E-02   0.5590983E-02   0.5525356E-02   0.4089658E-02
  -0.7498799E-34  -0.7498799E-34  -0.2389167E-18  -0.4686520E-18  -0.6803773E-18  -0.8659561E-18  -0.1018257E-17  -0.1131426E-17  -0.1201116E-17  -0.1224647E-17
  -0.1201116E-17  -0.1131426E-17  -0.1018257E-17  -0.8659561E-18  -0.6803773E-18  -0.4686520E-18  -0.2389167E-18   0.1553613E-05  -0.1628817E-02  -0.1614649E-02
   0.1618359E-02   0.1726384E-02   0.1724754E-02  -0.1735348E-02   0.1735348E-02  -0.1734691E-02   0.1734691E-02   0.1727812E-02  -0.1734691E-02   0.1734691E-02
   0.1736136E-02   0.1735348E-02   0.1732821E-02   0.1724754E-02  -0.1726629E-02  -0.1724754E-02  -0.1732821E-02   0.1732821E-02  -0.1736136E-02   0.1736136E-02
  -0.1727812E-02   0.1727812E-02  -0.1727812E-02  -0.1736136E-02  -0.1735348E-02  -0.1732821E-02   0.1720477E-02  -0.1724754E-02  -0.1721626E-02  -0.3798228E-06
   0.1628780E-02   0.3225202E-02   0.3225202E-02  -0.3225202E-02  -0.3225202E-02  -0.1681255E-02   0.1683562E-02  -0.3395530E-02  -0.3423970E-02  -0.3430430E-02
  -0.3435554E-02  -0.3411510E-02  -0.3395530E-02  -0.3423970E-02   0.3395530E-02   0.3423970E-02   0.3430430E-02   0.3435554E-02   0.3429954E-02  -0.3429954E-02
  -0.3424366E-02   0.3424366E-02   0.3411510E-02   0.3424366E-02   0.3429954E-02  -0.3429954E-02  -0.3424366E-02   0.3435554E-02   0.3430430E-02  -0.3435554E-02
  -0.3430430E-02   0.3423970E-02   0.3395530E-02   0.1680598E-02  -0.1683278E-02  -0.4876033E-02  -0.4876033E-02   0.4876033E-02   0.4876033E-02   0.5023561E-02
  -0.5052705E-02   0.5043198E-02   0.5052705E-02  -0.5050843E-02  -0.5034486E-02   0.5050843E-02   0.5034486E-02   0.5026505E-02   0.5026505E-02  -0.5034486E-02
   0.5034486E-02   0.5050843E-02   0.5052705E-02   0.5023561E-02   0.5043198E-02  -0.5023561E-02  -0.5043198E-02  -0.5026505E-02  -0.5026505E-02  -0.5050843E-02
  -0.5052705E-02  -0.5043198E-02  -0.5023561E-02  -0.3147578E-02  -0.3095649E-02   0.3096843E-02   0.3147607E-02  -0.8591286E-03   0.9670903E-03   0.8591727E-03
  -0.9675554E-03  -0.1625100E-03   0.1624472E-03  -0.6516307E-02  -0.6526305E-02  -0.6529568E-02  -0.6505556E-02  -0.6514473E-02   0.6514473E-02   0.6526450E-02
   0.6529670E-02   0.6527385E-02  -0.6504351E-02  -0.6527385E-02   0.6504351E-02   0.6505556E-02   0.6504351E-02   0.6527385E-02  -0.6504351E-02  -0.6527385E-02
   0.6529389E-02   0.6526303E-02  -0.6526187E-02  -0.6529670E-02   0.6513987E-02   0.6401885E-02   0.6401885E-02  -0.6401885E-02  -0.6401885E-02  -0.3002351E-02
   0.2748115E-02   0.3003356E-02  -0.2748102E-02   0.4684518E-02   0.4684518E-02  -0.4684518E-02  -0.4684518E-02   0.7775191E-02  -0.7733731E-02   0.7818724E-02
   0.7732864E-02  -0.7828798E-02  -0.7814313E-02   0.7828798E-02   0.7814313E-02   0.7760216E-02   0.7762939E-02  -0.7814313E-02   0.7814313E-02   0.7828798E-02
   0.7733814E-02   0.7773019E-02   0.7820154E-02  -0.7768217E-02  -0.7819748E-02  -0.7761771E-02  -0.7762335E-02  -0.7828798E-02  -0.7732082E-02  -0.7823107E-02
  -0.7776173E-02  -0.6227614E-02  -0.6233964E-02   0.6233963E-02   0.6227622E-02  -0.4355094E-02  -0.4430271E-02   0.4430806E-02   0.4355090E-02  -0.1652602E-02
   0.2196590E-02   0.1652604E-02  -0.2196387E-02  -0.8752803E-02   0.8755503E-02   0.8752016E-02  -0.8755553E-02  -0.8852229E-02  -0.8759768E-02  -0.8823094E-02
   0.8840458E-02   0.8945000E-02  -0.8921881E-02   0.8758453E-02   0.8883375E-02  -0.8907916E-02   0.8846749E-02  -0.1388069E-02   0.5726124E-03   0.1388069E-02
  -0.5726189E-03   0.7549426E-02   0.7570043E-02  -0.7570459E-02  -0.7549475E-02  -0.4217042E-02   0.3632933E-02   0.4227451E-02  -0.3632943E-02   0.5968697E-02
   0.5968697E-02  -0.5968697E-02  -0.5968697E-02   0.6713770E-03  -0.6713770E-03   0.8658041E-02  -0.9543622E-02   0.9550965E-02   0.8587034E-02  -0.8584878E-02
  -0.8660614E-02  -0.9560367E-02   0.9516523E-02   0.9584228E-02  -0.9532095E-02  -0.7398092E-02  -0.7399428E-02   0.7399428E-02   0.7400790E-02  -0.5436529E-02
  -0.5582348E-02   0.5578703E-02   0.5436503E-02  -0.2331989E-02   0.3381383E-02   0.2331972E-02  -0.3379816E-02  -0.8282876E-02  -0.9930801E-02  -0.8232298E-02
   0.8245364E-02   0.9944095E-02   0.8282876E-02  -0.2514265E-02   0.1224840E-02   0.2514265E-02  -0.1224798E-02  -0.5334935E-02   0.3998616E-02   0.5053595E-02
   0.5380470E-02  -0.3998651E-02  -0.5053917E-02   0.7021729E-02   0.7037167E-02  -0.7037992E-02  -0.7021729E-02  -0.9537400E-02   0.9387496E-02   0.9532522E-02
  -0.9379540E-02  -0.5617675E-02   0.5611710E-02   0.7725800E-02   0.9823173E-02   0.7740681E-02  -0.7743974E-02  -0.9833258E-02  -0.7680187E-02   0.1282622E-04
   0.1764903E-02  -0.1764903E-02  -0.1282622E-04   0.9203067E-02   0.8997913E-02  -0.8981074E-02  -0.9227594E-02  -0.9868575E-02   0.9873128E-02  -0.6445056E-02
   0.6441548E-02  -0.2855994E-02   0.4273500E-02   0.6667073E-02   0.2855904E-02  -0.4417504E-02  -0.6662315E-02   0.9927692E-02  -0.1106231E-02   0.1106231E-02
  -0.6433805E-02  -0.9489959E-02  -0.6975021E-02  -0.8703784E-02   0.6921763E-02   0.8749692E-02   0.9349043E-02  -0.8686176E-02  -0.9955785E-02   0.8653860E-02
  -0.3521906E-02   0.1773386E-02   0.3367096E-02  -0.1773144E-02   0.4528253E-02   0.6779943E-02   0.5822066E-02  -0.4531858E-02   0.9558925E-02  -0.9505055E-02
   0.7901245E-02   0.6942032E-02   0.8653222E-02   0.9403195E-02  -0.9222547E-02  -0.8809883E-02  -0.9535005E-02  -0.6185041E-02   0.6174500E-02   0.9621563E-02
  -0.7760421E-02  -0.5280414E-03   0.2744901E-02  -0.2756126E-02   0.5395343E-03  -0.9785128E-02  -0.3326735E-02   0.4737978E-02   0.3316234E-02  -0.5305742E-02
  -0.8862933E-02   0.7842652E-02   0.4290829E-02  -0.7567133E-02   0.8945594E-02  -0.5437118E-03  -0.2024629E-02   0.2040056E-02   0.5749474E-03  -0.6483194E-02
  -0.8035232E-02   0.7834942E-02  -0.4650334E-02   0.2178914E-02  -0.2177819E-02   0.4892718E-02  -0.4889350E-02  -0.5924301E-02   0.1280589E-02  -0.9856909E-03
   0.7885264E-02   0.8570719E-02  -0.6099879E-02   0.6092994E-02  -0.8285985E-03  -0.3913390E-02   0.9398006E-03  -0.3671655E-02   0.5774784E-02   0.3613294E-02
  -0.7153884E-02   0.7275963E-02  -0.8240517E-02   0.6497135E-02   0.2930197E-02  -0.2540329E-02  -0.6654702E-02  -0.5208810E-02   0.6699940E-02   0.5303074E-02
  -0.6940273E-02  -0.7865647E-02  -0.3053238E-02   0.3538484E-02   0.4930552E-02  -0.5168826E-02   0.4782181E-02  -0.4187029E-02   0.8534612E-03  -0.3644973E-03
   0.7103937E-04  -0.8188896E-03   0.5850662E-02   0.4787751E-02   0.6122879E-02   0.5783375E-02   0.1097981E-02  -0.1904399E-02  -0.1484389E-02  -0.2645157E-02
  -0.2589928E-02  -0.1794928E-02  -0.1522765E-02  -0.9857338E-03  -0.1273710E-03  -0.1918994E-02  -0.1881989E-02  -0.8101445E-03   0.8007974E-02   0.7891484E-02
   0.8230379E-02   0.1478245E-02  -0.1537363E-03   0.1179509E-02  -0.2977739E-03  -0.1830439E-02  -0.2569729E-02  -0.8320640E-03  -0.2412928E-02  -0.3310480E-02
  -0.3106514E-02  -0.3761504E-02  -0.3767833E-02   0.5628713E-02   0.5072287E-02   0.4921890E-02   0.4414583E-02  -0.2018357E-02  -0.6360896E-03  -0.1184825E-02
  -0.1052127E-03   0.6905643E-03   0.4318369E-03   0.1985781E-02  -0.3293537E-03  -0.1010537E-03  -0.3279629E-02  -0.1508215E-02  -0.2848227E-02   0.6577089E-02
  -0.2931557E-02  -0.3056142E-02  -0.3749120E-02  -0.3506603E-02  -0.5098763E-02  -0.8789474E-03  -0.2250879E-02  -0.7724129E-03  -0.6238060E-03   0.3493802E-02
  -0.3015839E-02  -0.1472286E-02  -0.3551934E-02  -0.5146524E-02  -0.5149777E-02  -0.4743486E-02   0.3094781E-03   0.5580797E-03   0.6335289E-02   0.6848874E-02
   0.5429016E-02   0.1275749E-02   0.1646776E-02   0.2530938E-02   0.1594183E-02   0.4408693E-03   0.2322951E-02   0.3546643E-02   0.7362362E-02  -0.5235321E-03
  -0.1363671E-02   0.9372490E-03  -0.1866915E-02   0.1321873E-02  -0.2837090E-03  -0.4404073E-02  -0.3922221E-02   0.7682097E-04   0.1250409E-02   0.2245921E-02
   0.3135232E-02   0.1611581E-02   0.2805306E-02   0.8066909E-03  -0.1053791E-03  -0.2714464E-02  -0.7040124E-02  -0.5805663E-02  -0.6170662E-02  -0.5339960E-02
  -0.4952210E-03   0.1779700E-02  -0.4105873E-02  -0.6068268E-02  -0.4795293E-02  -0.4047455E-02  -0.4676563E-02  -0.1097612E-03   0.8682756E-03  -0.5928856E-02
  -0.8210222E-02  -0.2506433E-02  -0.3969910E-02  -0.2369529E-02  -0.2472716E-02  -0.3889343E-02  -0.6666665E-03  -0.1418723E-02  -0.3479970E-02  -0.1709887E-02
  -0.2138823E-02  -0.4209078E-02  -0.4160763E-02   0.6640246E-02   0.5560815E-02   0.5538668E-02   0.6960522E-02   0.4955999E-02   0.3535122E-02   0.2460884E-02
   0.2019177E-02   0.4925063E-03   0.3218545E-02   0.1466327E-02   0.3454061E-02   0.2314977E-02   0.4495094E-02   0.3441274E-02   0.1144226E-02   0.1956333E-03
   0.4297497E-02   0.2951542E-02  -0.5715028E-02  -0.4919519E-02   0.1795074E-02   0.5134609E-02   0.2811134E-02   0.3512661E-02   0.3934384E-02   0.2364623E-02
   0.3655450E-02   0.2222071E-02   0.1268875E-02   0.2708005E-02   0.3856097E-02   0.3684393E-02   0.6632135E-03   0.2769519E-02   0.4367321E-02   0.3012993E-02
   0.5078829E-02   0.5601384E-02   0.4238901E-02   0.3835254E-02   0.3507370E-02   0.2745269E-02   0.2246406E-02  -0.2720511E-02   0.4647384E-02   0.2546540E-02
   0.2432965E-02   0.8333735E-03   0.4718257E-02   0.4765995E-02   0.1231015E-02  -0.4729893E-03   0.1679054E-03  -0.6713676E-03   0.4304225E-02   0.3472472E-02
   0.2793488E-02   0.3378613E-02   0.2508352E-02   0.4148618E-02   0.5637946E-02  -0.4888376E-02  -0.5240950E-02   0.2146266E-02   0.2788740E-02   0.3115260E-02
   0.7219928E-02  -0.6705796E-02  -0.6238684E-02   0.5060093E-02  -0.4876978E-02  -0.3864378E-02  -0.9373698E-03   0.7967493E-02   0.7128245E-02   0.8028123E-02
  -0.7818336E-02  -0.3710334E-02   0.7388797E-02   0.6320682E-02   0.6781163E-03  -0.1214772E-02   0.9466232E-03   0.1380360E-02   0.2115700E-02   0.9042095E-03
   0.4156251E-03  -0.1273090E-02  -0.1180846E-02  -0.1164431E-02  -0.9193418E-03   0.5705381E-02  -0.1790240E-02  -0.2124616E-02   0.1930347E-03   0.1510181E-02
  -0.9967103E-03  -0.8020413E-04   0.6597666E-02  -0.2147930E-02  -0.2423837E-02  -0.1305655E-02   0.1323070E-02  -0.1919127E-05  -0.8623796E-03   0.6434283E-03
   0.1974426E-02  -0.9274324E-03   0.6298272E-02   0.1318790E-02   0.2570544E-02   0.1269368E-02   0.3767973E-03  -0.6703047E-03  -0.1197370E-02  -0.2650485E-02
  -0.3668592E-02  -0.4090753E-02  -0.2846734E-02  -0.1919965E-02  -0.1427360E-02  -0.3883181E-03  -0.7729943E-02  -0.3793819E-02   0.2341547E-03  -0.1813478E-02
   0.2453457E-03  -0.1116918E-02  -0.6743095E-03   0.6798548E-03   0.6325181E-03  -0.2135822E-02  -0.1083733E-02  -0.1124899E-02   0.1085468E-03   0.1965939E-02
   0.3814022E-02   0.5319734E-02   0.3296568E-02   0.3557639E-02   0.3329953E-03  -0.3481955E-02  -0.4987113E-02   0.2131695E-02  -0.7202722E-02  -0.3584314E-02
  -0.2796353E-02  -0.4440087E-02  -0.2464681E-02  -0.3075325E-02  -0.2091663E-02  -0.3888645E-02  -0.3192810E-02  -0.4882655E-02   0.5821292E-02   0.5612637E-02
   0.3675075E-02   0.1818755E-02   0.2914351E-02  -0.4564619E-04  -0.6513027E-02  -0.5223152E-02  -0.2994176E-02   0.1958867E-02   0.1353595E-02   0.7403757E-02
   0.2622043E-02   0.7204506E-02   0.5774627E-02   0.7810067E-02   0.6122200E-02   0.4998739E-02  -0.4404172E-02   0.5483561E-02   0.4272896E-02   0.7860592E-03
   0.7789527E-04  -0.5530280E-02  -0.2415736E-02  -0.1180252E-02  -0.1070808E-02  -0.2775194E-02  -0.3282474E-02  -0.5582091E-02  -0.3407206E-02  -0.3745583E-02
  -0.2335836E-02  -0.2025780E-02  -0.2300102E-02  -0.4227122E-02  -0.6982047E-03  -0.2824459E-02  -0.2329789E-02  -0.1127367E-02  -0.1990540E-02  -0.2826120E-02
   0.2118230E-04  -0.3006568E-02  -0.2790784E-02  -0.5399660E-02  -0.4448945E-02  -0.1262830E-02  -0.2747471E-02   0.1313507E-02   0.3917413E-02   0.2733899E-02